 Gaussian 03, Revision E.01,
 Gaussian 03:  IA32M-G03RevE.01 11-Sep-2007

 -------------------------------------------
 #p hf/sto-3g scf=tight formcheck=(mo,basis)
 -------------------------------------------

 -------------------------
 H2O HF/STO-3G wfn for QMC
 -------------------------
 Symbolic Z-matrix:
 Charge =  0 Multiplicity = 1

                         Standard orientation:
 ---------------------------------------------------------------------
 Center     Atomic     Atomic              Coordinates (Angstroms)
 Number     Number      Type              X           Y           Z
 ---------------------------------------------------------------------
    1          8             0        0.000000    0.000000    0.110812
    2          1             0        0.000000    0.783976   -0.443248
    3          1             0        0.000000   -0.783976   -0.443248
 ---------------------------------------------------------------------

 SCF Done:  E(RHF) =  -74.9607025105     A.U. after    7 cycles

 The electronic state is 1-A1.
 Alpha  occ. eigenvalues --  -20.23449  -1.26075  -0.62397  -0.44044  -0.38694
 Alpha virt. eigenvalues --    0.59290   0.75419

 Mulliken atomic charges:
              1
     1  O   -0.372541
     2  H    0.186270
     3  H    0.186270
 Sum of Mulliken charges=   0.00000

 Dipole moment (field-independent basis, Debye):
    X=     0.0000    Y=     0.0000    Z=    -1.6888  Tot=     1.6888
 Quadrupole moment (field-independent basis, Debye-Ang):
   XX=    -6.0921   YY=    -4.1956   ZZ=    -5.4609
   XY=     0.0000   XZ=     0.0000   YZ=     0.0000

 Normal termination of Gaussian 03 at Mon Mar 12 16:20:23 2012.
