 Gaussian 16, Revision C.01,
 Gaussian 16:  ES64L-G16RevC.01  3-Jul-2019

 --------------------------------------------
 #p RHF/sto-3g scf=tight formcheck=(mo,basis)
 --------------------------------------------

 ----------------------------------------------
 Methane Optimization and Frequency Calculation
 ----------------------------------------------
 Symbolic Z-matrix:
 Charge =  0 Multiplicity = 1

                         Standard orientation:
 ---------------------------------------------------------------------
 Center     Atomic      Atomic             Coordinates (Angstroms)
 Number     Number       Type             X           Y           Z
 ---------------------------------------------------------------------
      1          6           0        0.000000   -0.000000    0.000000
      2          1           0        0.628286    0.628286    0.628286
      3          1           0       -0.628286   -0.628286    0.628286
      4          1           0       -0.628286    0.628286   -0.628286
      5          1           0        0.628286   -0.628286   -0.628286
 ---------------------------------------------------------------------

 SCF Done:  E(RHF) =  -39.7267723848     A.U. after    6 cycles

 The electronic state is 1-A.
 Alpha  occ. eigenvalues --  -11.03014  -0.90940  -0.51844  -0.51844  -0.51844
 Alpha virt. eigenvalues --    0.71459   0.71459   0.71459   0.75316

 Mulliken charges:
               1
     1  C   -0.256895
     2  H    0.064224
     3  H    0.064224
     4  H    0.064224
     5  H    0.064224
 Sum of Mulliken charges =  -0.00000

 Dipole moment (field-independent basis, Debye):
    X=             -0.0000    Y=              0.0000    Z=              0.0000  Tot=              0.0000
 Quadrupole moment (field-independent basis, Debye-Ang):
   XX=             -7.8413   YY=             -7.8413   ZZ=             -7.8413
   XY=              0.0000   XZ=              0.0000   YZ=              0.0000

 Normal termination of Gaussian 16 at Fri Nov 29 14:02:22 2024.
